<?xml version="1.0" encoding="UTF-8"?>

<!-- generated on Mon Feb  1 11:43:19 2021 by Eclipse SUMO sumo Version 1.8.0
<configuration xmlns:xsi="http://www.w3.org/2001/XMLSchema-instance" xsi:noNamespaceSchemaLocation="http://sumo.dlr.de/xsd/sumoConfiguration.xsd">

    <input>
        <net-file value="/home/eclipse-sumo/Sumo/2021-02-01-11-43-10/osm.net.xml"/>
        <route-files value="/home/eclipse-sumo/Sumo/2021-02-01-11-43-10/trips.trips.xml"/>
        <additional-files value="/home/eclipse-sumo/Sumo/2021-02-01-11-43-10/osm_stops.add.xml"/>
    </input>

    <output>
        <vehroute-output value="/home/eclipse-sumo/Sumo/2021-02-01-11-43-10/vehroutes.xml"/>
        <stop-output value="/home/eclipse-sumo/Sumo/2021-02-01-11-43-10/stopinfos.xml"/>
    </output>

    <time>
        <begin value="0"/>
    </time>

    <processing>
        <ignore-route-errors value="true"/>
    </processing>

    <routing>
        <device.rerouting.adaptation-interval value="0"/>
    </routing>

    <report>
        <error-log value="/home/eclipse-sumo/Sumo/2021-02-01-11-43-10/trips.trips.xml.errorlog"/>
        <no-step-log value="true"/>
    </report>

</configuration>
-->

<routes xmlns:xsi="http://www.w3.org/2001/XMLSchema-instance" xsi:noNamespaceSchemaLocation="http://sumo.dlr.de/xsd/routes_file.xsd">
    <vehicle id="1_bus_L1:0" type="pt_bus" depart="52.00" departLane="1" arrival="238.00">
        <route edges="31548939#0 31548939#1 31548939#2 31548939#3 31548939#4 31548939#5 31548939#6 31548939#7 25215918 713397869#0 713397869#1 89209796#0 89209796#1 89209796#2 29438758#1 29438758#2 33176188#0 33176188#1"/>
        <stop busStop="1658284989" duration="30.00"/>
    </vehicle>

    <vehicle id="0_bus_LC:0" type="pt_bus" depart="15.00" departLane="0" arrival="342.00">
        <route edges="22358125 310324548 310627385#0 39040260 675949211 310324549#0 310467867 362655714 392249363 373226713 30824100#0 30824100#1 30824100#2 30824100#5 419864788 713397871 25215919#2 25215919#3 25215918 713397869#0 713397869#1 310324536#0 310763127#0 310763127#1 310763127#2 310763127#3 310763127#4 310763127#5 310763127#6 419864787#0 419864787#1"/>
        <stop busStop="4313286126" duration="30.00"/>
        <stop busStop="1658284990" duration="30.00"/>
    </vehicle>

    <vehicle id="2_bus_L2:0" type="pt_bus" depart="133.00" departLane="1" arrival="407.00">
        <route edges="31548939#0 31548939#1 31548939#2 31548939#3 31548939#4 31548939#5 31548939#6 31548939#7 25215918 713397869#0 713397869#1 310324536#0 310763127#0 310763127#1 310763127#2 310763127#3 310763127#4 310763127#5 310763127#6 419864787#0 419864787#1 22358125 310324548 310627385#0 39040260 362655713 25171213"/>
        <stop busStop="1658284989" duration="30.00"/>
    </vehicle>

    <vehicle id="8_bus_L40:0" type="pt_bus" depart="535.00" departLane="0" arrival="612.00">
        <route edges="713397869#0 713397869#1 25215919#2 25215919#3 25215918"/>
        <stop busStop="1658284989" duration="30.00"/>
    </vehicle>

    <vehicle id="5_bus_L6:0" type="pt_bus" depart="383.00" departLane="0" arrival="644.00">
        <route edges="-107173639#2 -107173639#1 -107173639#0 -123693606 -107136392#1 -107136392#0 311219428 123693607#0 123693607#1 123693607#2 388184135#0 30319185 34066807#0 34066807#1 49946922 -60579141#2 -60579141#1 -60579141#0 -30318399#0 30318401 311727446#0 311727446#1 54377356#0 54377356#2 24524712#0 24524712#1 24524712#2 24524712#3 311363240 713397863#0 713397863#1 38084535 388248843#0 33176188#0 33176188#1"/>
        <stop busStop="-4313286134" duration="30.00"/>
    </vehicle>

    <vehicle id="3_bus_L4:0" type="pt_bus" depart="165.00" departLane="0" arrival="763.00">
        <route edges="55693616#0 55693616#1 463648725 311505705#0 374948156 374948157 24304831 463648732 463648723#0 463648723#2 756248871#0 756248871#1 30163123#1 30163123#2 30163123#3 30163123#4 25215918 713397869#0 713397869#1 25215919#2 25215919#3 23823479#0 23823479#3 23823479#4 23823479#5 312814739#1 756248872#0 756248872#1 756248872#3 756248872#4 463648721 310909354#0 310909352 299080624 23069767 463648715#0 463648715#1"/>
        <stop busStop="6291931074" duration="30.00"/>
        <stop busStop="1658284989" duration="30.00"/>
    </vehicle>

    <vehicle id="7_bus_L8:0" type="pt_bus" depart="441.00" departLane="1" arrival="910.00">
        <route edges="31548939#0 31548939#1 31548939#2 31548939#3 31548939#4 31548939#5 31548939#6 31548939#7 25215918 713397869#0 713397869#1 25215917#1 25215917#2 25215917#3 25215917#4 25215917#5 25215917#6 311363249#0 311363249#1 311363249#2 311363249#3 311219430 24524711#0 24524711#1 24524711#2 24524711#3 311450566 24610184#0 -388252037#1 -388252037#0 388252037#0 388252037#1 30271219 311505709#0 311505709#1 311727446#0 311727446#1 311505716 311450566 24610184#0 24610187#1 24610187#2 120569625#0 206664505#0 206664504 -34067365#1 -34067373 311219430 311363251 311363250 25215916#0 25215916#1 25215916#2 25215916#3 25215916#4 25215916#5 25215916#6 25215919#2 25215919#3 24045454#0 24045454#1 24045454#2"/>
        <stop busStop="1658284989" duration="30.00"/>
        <stop busStop="4313286129" duration="30.00"/>
        <stop busStop="-7973000939" duration="30.00"/>
    </vehicle>

    <vehicle id="4_bus_L5:0" type="pt_bus" depart="253.00" departLane="1" arrival="985.00">
        <route edges="140955932#0 463648716 299080624 311363239 311505705#0 374948156 374948157 24304831 463648732 463648723#0 463648723#2 756248871#0 756248871#1 30163123#1 30163123#2 30163123#3 30163123#4 25215918 713397869#0 713397869#1 25215919#2 25215919#3 23823479#0 23823479#3 23823479#4 23823479#5 312814739#1 756248872#0 756248872#1 756248872#3 756248872#4 463648721 310909354#0 29464383 713731428 463648718#0"/>
        <stop busStop="1658284989" duration="30.00"/>
    </vehicle>

    <vehicle id="6_bus_L7:0" type="pt_bus" depart="406.00" departLane="0" arrival="1386.00">
        <route edges="55693616#0 55693616#1 463648725 311505705#0 374948156 374948157 24304831 463648732 463648723#0 463648723#2 756248871#0 756248871#1 30163123#1 30163123#2 30163123#3 30163123#4 25215918 713397869#0 713397869#1 25215917#1 25215917#2 25215917#3 25215917#4 25215917#5 25215917#6 311363249#0 311363249#1 311363249#2 311363249#3 311219430 24524711#0 24524711#1 24524711#2 24524711#3 311450566 24610184#0 -388252037#1 -388252037#0 388252037#0 388252037#1 30271219 311505709#0 311505709#1 311727446#0 311727446#1 311505716 311450566 24610184#0 24610187#1 24610187#2 120569625#0 206664505#0 206664504 -34067365#1 -34067373 311219430 311363251 311363250 25215916#0 25215916#1 25215916#2 25215916#3 25215916#4 25215916#5 25215916#6 25215919#2 25215919#3 23823479#0 23823479#3 23823479#4 23823479#5 312814739#1 756248872#0 756248872#1 756248872#3 756248872#4 463648721 310909354#0 310909352 299080624 23069767 463648715#0 463648715#1"/>
        <stop busStop="6291931074" duration="30.00"/>
        <stop busStop="1658284989" duration="30.00"/>
        <stop busStop="4313286129" duration="30.00"/>
        <stop busStop="-7973000939" duration="30.00"/>
    </vehicle>

</routes>
